                         Program Version 5.0.3 -  RELEASE  -
|  1> !MiniPrint
|  2> !B3LYP 6-311++G(d,p) extremescf CPCM(water)
|  3> %pal nprocs 30
|  4> end
|  5>
|  6> # Coordinate type     Charge  Multiplicity
|  7> * xyzfile 0 1 GLASS_108188.xyz
|  8>
|  9>                          ****END OF INPUT****

CARTESIAN COORDINATES (ANGSTROEM)
---------------------------------
  C     -5.620600   -2.420000    0.000000
  N     -4.143400   -2.159500    0.000000
  C     -3.179200   -3.308600    0.000000
  C     -3.630400   -0.750000    0.000000
  C     -3.630400    0.750000    0.000000
  C     -2.331300    1.500000    0.000000
  C     -1.032300    0.750000    0.000000
  C      0.394300    1.213500    0.000000
  C      0.409300    2.720200    0.000000
  C     -0.804200    3.601900    0.000000
  C     -2.174500    2.991800    0.000000
  N      1.276000    0.000000    0.000000
  C      0.394300   -1.213500    0.000000
  O      0.857800   -2.640100    0.000000
  N     -1.032300   -0.750000    0.000000
  C     -2.331300   -1.500000    0.000000
  H     -7.097800   -2.680500    0.000000
  H     -5.360100   -3.897200    0.000000
  H     -6.059200   -0.985600    0.000000
  H     -2.215000   -4.457700    0.000000
  H     -4.328300   -4.272800    0.000000
  H     -2.510600   -2.874500    0.000000
  H     -4.792300   -0.394700    0.000000
  H     -4.826900    0.539000    0.000000
  H     -4.143400    2.159500    0.000000
  H      1.779600    3.330300    0.000000
  H     -0.647400    5.093700    0.000000
  H     -3.388100    3.873500    0.000000
  H      2.776000    0.000000    0.000000
  H     -1.611500   -2.171200    0.000000
  H     -2.719600   -2.296100    0.000000

ORBITAL ENERGIES
----------------

  NO   OCC          E(Eh)            E(eV)
   0   2.0000     -19.108989      -519.9820
   1   2.0000     -14.469301      -393.7297
   2   2.0000     -14.413790      -392.2192
   3   2.0000     -14.410882      -392.1400
   4   2.0000     -10.340728      -281.3855
   5   2.0000     -10.300198      -280.2826
   6   2.0000     -10.296672      -280.1867
   7   2.0000     -10.270068      -279.4627
   8   2.0000     -10.257236      -279.1136
   9   2.0000     -10.248407      -278.8733
  10   2.0000     -10.242059      -278.7006
  11   2.0000     -10.238903      -278.6147
  12   2.0000     -10.236376      -278.5459
  13   2.0000     -10.233260      -278.4612
  14   2.0000     -10.208782      -277.7951
  15   2.0000     -10.201400      -277.5942
  16   2.0000      -1.145048       -31.1583
  17   2.0000      -0.994161       -27.0525
  18   2.0000      -0.942163       -25.6376
  19   2.0000      -0.913004       -24.8441
  20   2.0000      -0.890966       -24.2444
  21   2.0000      -0.839080       -22.8325
  22   2.0000      -0.814532       -22.1645
  23   2.0000      -0.751399       -20.4466
  24   2.0000      -0.729539       -19.8518
  25   2.0000      -0.718782       -19.5591
  26   2.0000      -0.691531       -18.8175
  27   2.0000      -0.636641       -17.3239
  28   2.0000      -0.614646       -16.7254
  29   2.0000      -0.597987       -16.2720
  30   2.0000      -0.562746       -15.3131
  31   2.0000      -0.549911       -14.9638
  32   2.0000      -0.525753       -14.3065
  33   2.0000      -0.502169       -13.6647
  34   2.0000      -0.488836       -13.3019
  35   2.0000      -0.470592       -12.8055
  36   2.0000      -0.464295       -12.6341
  37   2.0000      -0.450242       -12.2517
  38   2.0000      -0.433671       -11.8008
  39   2.0000      -0.433565       -11.7979
  40   2.0000      -0.422055       -11.4847
  41   2.0000      -0.409605       -11.1459
  42   2.0000      -0.393170       -10.6987
  43   2.0000      -0.382103       -10.3975
  44   2.0000      -0.359740        -9.7890
  45   2.0000      -0.352502        -9.5921
  46   2.0000      -0.349893        -9.5211
  47   2.0000      -0.348118        -9.4728
  48   2.0000      -0.329869        -8.9762
  49   2.0000      -0.305139        -8.3033
  50   2.0000      -0.292935        -7.9712
  51   2.0000      -0.281658        -7.6643
  52   2.0000      -0.271002        -7.3743
  53   2.0000      -0.267510        -7.2793
  54   2.0000      -0.235116        -6.3978
  55   2.0000      -0.223144        -6.0721
  56   2.0000      -0.193819        -5.2741
  57   2.0000      -0.160506        -4.3676
  58   0.0000      -0.118439        -3.2229
  59   0.0000      -0.117352        -3.1933
  60   0.0000      -0.111687        -3.0392
  61   0.0000      -0.083117        -2.2617
  62   0.0000      -0.065665        -1.7868

Total SCF time: 0 days 0 hours 1 min 44 sec

FINAL SINGLE POINT ENERGY      -703.545763360572

DIPOLE MOMENT
-------------
                                X             Y             Z
Electronic contribution:     14.66340       7.67400      -0.00000
Nuclear contribution   :    -18.40273      -5.93249       0.00000
                        -----------------------------------------
Total Dipole Moment    :     -3.73933       1.74151      -0.00000
                        -----------------------------------------
Magnitude (a.u.)       :      4.12498
Magnitude (Debye)      :     10.48487

Rotational constants in cm-1:     0.025036     0.013555     0.008794
Rotational constants in MHz :   750.567197   406.362134   263.630699

                             ****ORCA TERMINATED NORMALLY****
TOTAL RUN TIME: 0 days 0 hours 1 minutes 46 seconds 780 msec
