                         Program Version 5.0.3 -  RELEASE  -
|  1> !MiniPrint
|  2> !B3LYP 6-311++G(d,p) extremescf CPCM(water)
|  3> %pal nprocs 30
|  4> end
|  5>
|  6> # Coordinate type     Charge  Multiplicity
|  7> * xyzfile 0 1 GLASS_149292.xyz
|  8>
|  9>                          ****END OF INPUT****

CARTESIAN COORDINATES (ANGSTROEM)
---------------------------------
  C      3.003500    1.989400    0.000000
  N      2.691700    3.456600    0.000000
  C      3.695400    4.571300    0.000000
  C      2.945400    5.870300    0.000000
  C      1.478100    5.558500    0.000000
  C      1.321300    4.066700    0.000000
  C      0.857800    2.640100    0.000000
  C      0.394300    1.213500    0.000000
  C      1.276000    0.000000    0.000000
  N      0.394300   -1.213500    0.000000
  C     -1.032300   -0.750000    0.000000
  C     -1.032300    0.750000    0.000000
  C     -2.331300    1.500000    0.000000
  C     -3.630400    0.750000    0.000000
  C     -3.630400   -0.750000    0.000000
  C     -2.331300   -1.500000    0.000000
  N     -4.929400    1.500000    0.000000
  S     -6.228400    0.750000    0.000000
  O     -5.478400   -0.549000    0.000000
  O     -6.978400    2.049000    0.000000
  C     -7.527500   -0.000000    0.000000
  C     -8.826500    0.750000    0.000000
  C    -10.125600   -0.000000    0.000000
  C    -10.125600   -1.500000    0.000000
  C     -8.826500   -2.250000    0.000000
  C     -7.527500   -1.500000    0.000000
  Cl    -6.228400   -2.250000    0.000000
  H      3.491900    0.571100    0.000000
  H      4.470800    2.301200    0.000000
  H      2.249800    1.729800    0.000000
  H      4.908900    5.453000    0.000000
  H      4.699100    3.456600    0.000000
  H      2.481800    7.296900    0.000000
  H      4.315700    6.480500    0.000000
  H     -0.021900    5.558500    0.000000
  H      1.321300    7.050300    0.000000
  H     -0.145900    4.378600    0.000000
  H      1.477300    2.138400    0.000000
  H     -0.568800    3.103600    0.000000
  H      2.764800   -0.182800    0.000000
  H      0.857800   -2.640100    0.000000
  H     -2.331300    3.000000    0.000000
  H     -4.929400   -1.500000    0.000000
  H     -2.331300   -3.000000    0.000000
  H     -4.929400    3.000000    0.000000
  H     -8.826500    2.250000    0.000000
  H    -11.424600    0.750000    0.000000
  H    -11.424600   -2.250000    0.000000
  H     -8.826500   -3.750000    0.000000

ORBITAL ENERGIES
----------------

  NO   OCC          E(Eh)            E(eV)
   0   2.0000    -101.599241     -2764.6559
   1   2.0000     -89.054773     -2423.3036
   2   2.0000     -19.115964      -520.1718
   3   2.0000     -19.074402      -519.0409
   4   2.0000     -14.403659      -391.9435
   5   2.0000     -14.392783      -391.6475
   6   2.0000     -14.388019      -391.5179
   7   2.0000     -10.281328      -279.7692
   8   2.0000     -10.276842      -279.6471
   9   2.0000     -10.270265      -279.4681
  10   2.0000     -10.268510      -279.4204
  11   2.0000     -10.264479      -279.3107
  12   2.0000     -10.258218      -279.1403
  13   2.0000     -10.256718      -279.0995
  14   2.0000     -10.255787      -279.0742
  15   2.0000     -10.251743      -278.9641
  16   2.0000     -10.248100      -278.8650
  17   2.0000     -10.247381      -278.8454
  18   2.0000     -10.246487      -278.8211
  19   2.0000     -10.232539      -278.4415
  20   2.0000     -10.228425      -278.3296
  21   2.0000     -10.225351      -278.2459
  22   2.0000     -10.224937      -278.2347
  23   2.0000     -10.219376      -278.0834
  24   2.0000     -10.217130      -278.0222
  25   2.0000     -10.211198      -277.8608
  26   2.0000     -10.183959      -277.1196
  27   2.0000      -9.523896      -259.1584
  28   2.0000      -8.123931      -221.0634
  29   2.0000      -7.285777      -198.2561
  30   2.0000      -7.278647      -198.0621
  31   2.0000      -7.278303      -198.0527
  32   2.0000      -6.088429      -165.6746
  33   2.0000      -6.085607      -165.5978
  34   2.0000      -6.082640      -165.5171
  35   2.0000      -1.186101       -32.2754
  36   2.0000      -1.073804       -29.2197
  37   2.0000      -1.017718       -27.6935
  38   2.0000      -0.992968       -27.0200
  39   2.0000      -0.933183       -25.3932
  40   2.0000      -0.924126       -25.1467
  41   2.0000      -0.897053       -24.4100
  42   2.0000      -0.865683       -23.5564
  43   2.0000      -0.817766       -22.2525
  44   2.0000      -0.803829       -21.8733
  45   2.0000      -0.793925       -21.6038
  46   2.0000      -0.762683       -20.7536
  47   2.0000      -0.750973       -20.4350
  48   2.0000      -0.737745       -20.0751
  49   2.0000      -0.721884       -19.6435
  50   2.0000      -0.702764       -19.1232
  51   2.0000      -0.681898       -18.5554
  52   2.0000      -0.671629       -18.2760
  53   2.0000      -0.661026       -17.9874
  54   2.0000      -0.621471       -16.9111
  55   2.0000      -0.614557       -16.7230
  56   2.0000      -0.610243       -16.6056
  57   2.0000      -0.600594       -16.3430
  58   2.0000      -0.592391       -16.1198
  59   2.0000      -0.568956       -15.4821
  60   2.0000      -0.540989       -14.7211
  61   2.0000      -0.537650       -14.6302
  62   2.0000      -0.531529       -14.4636
  63   2.0000      -0.514336       -13.9958
  64   2.0000      -0.511016       -13.9054
  65   2.0000      -0.503342       -13.6966
  66   2.0000      -0.498964       -13.5775
  67   2.0000      -0.468853       -12.7581
  68   2.0000      -0.457628       -12.4527
  69   2.0000      -0.453859       -12.3501
  70   2.0000      -0.453601       -12.3431
  71   2.0000      -0.444033       -12.0828
  72   2.0000      -0.438187       -11.9237
  73   2.0000      -0.430179       -11.7058
  74   2.0000      -0.428325       -11.6553
  75   2.0000      -0.421820       -11.4783
  76   2.0000      -0.412302       -11.2193
  77   2.0000      -0.406762       -11.0686
  78   2.0000      -0.401705       -10.9310
  79   2.0000      -0.389644       -10.6027
  80   2.0000      -0.389447       -10.5974
  81   2.0000      -0.380596       -10.3565
  82   2.0000      -0.370617       -10.0850
  83   2.0000      -0.368179       -10.0187
  84   2.0000      -0.358655        -9.7595
  85   2.0000      -0.350749        -9.5444
  86   2.0000      -0.348268        -9.4768
  87   2.0000      -0.338078        -9.1996
  88   2.0000      -0.337627        -9.1873
  89   2.0000      -0.327359        -8.9079
  90   2.0000      -0.326874        -8.8947
  91   2.0000      -0.321545        -8.7497
  92   2.0000      -0.306418        -8.3381
  93   2.0000      -0.292436        -7.9576
  94   2.0000      -0.274282        -7.4636
  95   2.0000      -0.264359        -7.1936
  96   2.0000      -0.261031        -7.1030
  97   2.0000      -0.257318        -7.0020
  98   2.0000      -0.256115        -6.9693
  99   2.0000      -0.248788        -6.7699
 100   2.0000      -0.240839        -6.5536
 101   2.0000      -0.230512        -6.2726
 102   2.0000      -0.227792        -6.1985
 103   2.0000      -0.199957        -5.4411
 104   2.0000      -0.175202        -4.7675
 105   2.0000      -0.166133        -4.5207
 106   0.0000      -0.137880        -3.7519
 107   0.0000      -0.123732        -3.3669
 108   0.0000      -0.117883        -3.2078
 109   0.0000      -0.113004        -3.0750
 110   0.0000      -0.075375        -2.0511

Total SCF time: 0 days 0 hours 6 min 0 sec

FINAL SINGLE POINT ENERGY     -1945.155377338802

DIPOLE MOMENT
-------------
                                X             Y             Z
Electronic contribution:    -54.23862     -34.54596      -0.00000
Nuclear contribution   :     48.84760      29.97765       0.00000
                        -----------------------------------------
Total Dipole Moment    :     -5.39102      -4.56831      -0.00000
                        -----------------------------------------
Magnitude (a.u.)       :      7.06630
Magnitude (Debye)      :     17.96111

Rotational constants in cm-1:     0.014883     0.002003     0.001765
Rotational constants in MHz :   446.178626    60.051627    52.927996

                             ****ORCA TERMINATED NORMALLY****
TOTAL RUN TIME: 0 days 0 hours 6 minutes 4 seconds 411 msec
