                         Program Version 5.0.3 -  RELEASE  -
|  1> !MiniPrint
|  2> !B3LYP 6-311++G(d,p) extremescf CPCM(water)
|  3> %pal nprocs 30
|  4> end
|  5>
|  6> # Coordinate type     Charge  Multiplicity
|  7> * xyzfile 0 1 GLASS_148380.xyz
|  8>
|  9>                          ****END OF INPUT****

CARTESIAN COORDINATES (ANGSTROEM)
---------------------------------
  C      2.649100    0.964200    0.000000
  C      1.500000    0.000000    0.000000
  C      0.750000   -1.299000    0.000000
  C     -0.750000   -1.299000    0.000000
  C     -1.500000   -2.598100    0.000000
  C     -0.750000   -3.897100    0.000000
  C      0.750000   -3.897100    0.000000
  C      1.500000   -2.598100    0.000000
  Cl     3.000000   -2.598100    0.000000
  N     -1.500000    0.000000    0.000000
  C     -0.750000    1.299000    0.000000
  N     -1.500000    2.598100    0.000000
  C     -0.750000    3.897100    0.000000
  C      0.000000    5.196200    0.000000
  F      0.750000    6.495200    0.000000
  F     -1.299000    5.946200    0.000000
  N      0.750000    1.299000    0.000000
  H      3.798100    1.928400    0.000000
  H      3.613200   -0.184900    0.000000
  H      2.053500    1.881300    0.000000
  H      2.649100   -0.964200    0.000000
  H     -3.000000   -2.598100    0.000000
  H     -1.500000   -5.196200    0.000000
  H      1.500000   -5.196200    0.000000
  H     -3.000000    0.000000    0.000000
  H      0.549000    3.147100    0.000000
  H     -2.049000    4.647100    0.000000
  H      1.299000    4.446200    0.000000
  H      1.177200    2.305600    0.000000

ORBITAL ENERGIES
----------------

  NO   OCC          E(Eh)            E(eV)
   0   2.0000    -101.632117     -2765.5505
   1   2.0000     -24.648157      -670.7104
   2   2.0000     -24.644476      -670.6103
   3   2.0000     -14.414791      -392.2464
   4   2.0000     -14.404104      -391.9556
   5   2.0000     -14.339533      -390.1985
   6   2.0000     -10.328211      -281.0449
   7   2.0000     -10.320114      -280.8246
   8   2.0000     -10.305906      -280.4380
   9   2.0000     -10.300967      -280.3036
  10   2.0000     -10.294890      -280.1382
  11   2.0000     -10.279377      -279.7161
  12   2.0000     -10.269118      -279.4369
  13   2.0000     -10.261035      -279.2170
  14   2.0000     -10.259156      -279.1658
  15   2.0000     -10.252736      -278.9911
  16   2.0000     -10.226899      -278.2881
  17   2.0000      -9.552841      -259.9460
  18   2.0000      -7.315075      -199.0533
  19   2.0000      -7.309181      -198.8929
  20   2.0000      -7.306461      -198.8189
  21   2.0000      -1.192437       -32.4479
  22   2.0000      -1.134441       -30.8697
  23   2.0000      -1.025018       -27.8921
  24   2.0000      -1.001690       -27.2574
  25   2.0000      -0.924154       -25.1475
  26   2.0000      -0.871776       -23.7222
  27   2.0000      -0.830133       -22.5891
  28   2.0000      -0.798486       -21.7279
  29   2.0000      -0.756395       -20.5825
  30   2.0000      -0.735221       -20.0064
  31   2.0000      -0.715109       -19.4591
  32   2.0000      -0.694976       -18.9112
  33   2.0000      -0.646466       -17.5912
  34   2.0000      -0.618373       -16.8268
  35   2.0000      -0.601771       -16.3750
  36   2.0000      -0.579243       -15.7620
  37   2.0000      -0.564379       -15.3575
  38   2.0000      -0.536135       -14.5890
  39   2.0000      -0.531439       -14.4612
  40   2.0000      -0.501170       -13.6375
  41   2.0000      -0.496691       -13.5157
  42   2.0000      -0.474199       -12.9036
  43   2.0000      -0.472659       -12.8617
  44   2.0000      -0.467189       -12.7129
  45   2.0000      -0.452924       -12.3247
  46   2.0000      -0.445527       -12.1234
  47   2.0000      -0.440700       -11.9921
  48   2.0000      -0.436214       -11.8700
  49   2.0000      -0.417236       -11.3536
  50   2.0000      -0.414257       -11.2725
  51   2.0000      -0.386184       -10.5086
  52   2.0000      -0.379378       -10.3234
  53   2.0000      -0.373005       -10.1500
  54   2.0000      -0.359239        -9.7754
  55   2.0000      -0.359124        -9.7723
  56   2.0000      -0.357715        -9.7339
  57   2.0000      -0.344287        -9.3685
  58   2.0000      -0.333589        -9.0774
  59   2.0000      -0.314940        -8.5699
  60   2.0000      -0.290526        -7.9056
  61   2.0000      -0.279181        -7.5969
  62   2.0000      -0.258850        -7.0437
  63   2.0000      -0.227826        -6.1995
  64   2.0000      -0.201911        -5.4943
  65   2.0000      -0.201631        -5.4867
  66   2.0000      -0.192117        -5.2278
  67   0.0000      -0.148076        -4.0294
  68   0.0000      -0.119678        -3.2566
  69   0.0000      -0.111931        -3.0458
  70   0.0000      -0.078065        -2.1243
  71   0.0000      -0.072767        -1.9801

Total SCF time: 0 days 0 hours 2 min 6 sec

FINAL SINGLE POINT ENERGY     -1248.851330719013

DIPOLE MOMENT
-------------
                                X             Y             Z
Electronic contribution:      1.69450      -2.41654      -0.00000
Nuclear contribution   :     -0.09488      -8.80034       0.00000
                        -----------------------------------------
Total Dipole Moment    :      1.59961     -11.21688      -0.00000
                        -----------------------------------------
Magnitude (a.u.)       :     11.33036
Magnitude (Debye)      :     28.79949

Rotational constants in cm-1:     0.028635     0.005524     0.004631
Rotational constants in MHz :   858.462070   165.602131   138.822496

                             ****ORCA TERMINATED NORMALLY****
TOTAL RUN TIME: 0 days 0 hours 2 minutes 9 seconds 388 msec
