                         Program Version 5.0.3 -  RELEASE  -
|  1> !MiniPrint
|  2> !B3LYP 6-311++G(d,p) extremescf CPCM(water)
|  3> %pal nprocs 30
|  4> end
|  5>
|  6> # Coordinate type     Charge  Multiplicity
|  7> * xyzfile 0 1 GLASS_116701.xyz
|  8>
|  9>                          ****END OF INPUT****

CARTESIAN COORDINATES (ANGSTROEM)
---------------------------------
  C      3.003500    1.989400    0.000000
  N      2.691700    3.456600    0.000000
  C      3.695400    4.571300    0.000000
  C      2.945400    5.870300    0.000000
  C      1.478100    5.558500    0.000000
  C      1.321300    4.066700    0.000000
  C      0.857800    2.640100    0.000000
  C      0.394300    1.213500    0.000000
  C      1.276000    0.000000    0.000000
  N      0.394300   -1.213500    0.000000
  C     -1.032300   -0.750000    0.000000
  C     -1.032300    0.750000    0.000000
  C     -2.331300    1.500000    0.000000
  C     -3.630400    0.750000    0.000000
  C     -3.630400   -0.750000    0.000000
  C     -2.331300   -1.500000    0.000000
  N     -4.929400    1.500000    0.000000
  S     -6.228400    0.750000    0.000000
  O     -5.478400   -0.549000    0.000000
  O     -6.978400    2.049000    0.000000
  C     -7.527500   -0.000000    0.000000
  C     -8.826500    0.750000    0.000000
  C    -10.125600   -0.000000    0.000000
  C    -10.125600   -1.500000    0.000000
  C     -8.826500   -2.250000    0.000000
  C     -7.527500   -1.500000    0.000000
  Cl   -11.424600    0.750000    0.000000
  H      3.491900    0.571100    0.000000
  H      4.470800    2.301200    0.000000
  H      2.249800    1.729800    0.000000
  H      4.908900    5.453000    0.000000
  H      4.699100    3.456600    0.000000
  H      2.481800    7.296900    0.000000
  H      4.315700    6.480500    0.000000
  H     -0.021900    5.558500    0.000000
  H      1.321300    7.050300    0.000000
  H     -0.145900    4.378600    0.000000
  H      1.477300    2.138400    0.000000
  H     -0.568800    3.103600    0.000000
  H      2.764800   -0.182800    0.000000
  H      0.857800   -2.640100    0.000000
  H     -2.331300    3.000000    0.000000
  H     -4.929400   -1.500000    0.000000
  H     -2.331300   -3.000000    0.000000
  H     -4.929400    3.000000    0.000000
  H     -8.826500    2.250000    0.000000
  H    -11.424600   -2.250000    0.000000
  H     -8.826500   -3.750000    0.000000
  H     -6.228400   -2.250000    0.000000

ORBITAL ENERGIES
----------------

  NO   OCC          E(Eh)            E(eV)
   0   2.0000    -101.570292     -2763.8682
   1   2.0000     -89.054871     -2423.3063
   2   2.0000     -19.113340      -520.1004
   3   2.0000     -19.077840      -519.1344
   4   2.0000     -14.405709      -391.9993
   5   2.0000     -14.397695      -391.7812
   6   2.0000     -14.393979      -391.6801
   7   2.0000     -10.278387      -279.6891
   8   2.0000     -10.271513      -279.5021
   9   2.0000     -10.269989      -279.4606
  10   2.0000     -10.263533      -279.2849
  11   2.0000     -10.259833      -279.1843
  12   2.0000     -10.259711      -279.1809
  13   2.0000     -10.256142      -279.0838
  14   2.0000     -10.254867      -279.0491
  15   2.0000     -10.247790      -278.8566
  16   2.0000     -10.247125      -278.8385
  17   2.0000     -10.245280      -278.7882
  18   2.0000     -10.242381      -278.7094
  19   2.0000     -10.236032      -278.5366
  20   2.0000     -10.230925      -278.3976
  21   2.0000     -10.226462      -278.2762
  22   2.0000     -10.220586      -278.1163
  23   2.0000     -10.218334      -278.0550
  24   2.0000     -10.216620      -278.0084
  25   2.0000     -10.212801      -277.9045
  26   2.0000     -10.205702      -277.7113
  27   2.0000      -9.491978      -258.2899
  28   2.0000      -8.124527      -221.0796
  29   2.0000      -7.255419      -197.4300
  30   2.0000      -7.247014      -197.2013
  31   2.0000      -7.245798      -197.1682
  32   2.0000      -6.088838      -165.6857
  33   2.0000      -6.086113      -165.6115
  34   2.0000      -6.083265      -165.5341
  35   2.0000      -1.167388       -31.7662
  36   2.0000      -1.047544       -28.5051
  37   2.0000      -1.018953       -27.7271
  38   2.0000      -0.964848       -26.2548
  39   2.0000      -0.939057       -25.5530
  40   2.0000      -0.934622       -25.4324
  41   2.0000      -0.898503       -24.4495
  42   2.0000      -0.837038       -22.7770
  43   2.0000      -0.820993       -22.3403
  44   2.0000      -0.804083       -21.8802
  45   2.0000      -0.783770       -21.3275
  46   2.0000      -0.763759       -20.7829
  47   2.0000      -0.750017       -20.4090
  48   2.0000      -0.733349       -19.9554
  49   2.0000      -0.712569       -19.3900
  50   2.0000      -0.705044       -19.1852
  51   2.0000      -0.688495       -18.7349
  52   2.0000      -0.678791       -18.4708
  53   2.0000      -0.627328       -17.0705
  54   2.0000      -0.615244       -16.7416
  55   2.0000      -0.611185       -16.6312
  56   2.0000      -0.605849       -16.4860
  57   2.0000      -0.601602       -16.3704
  58   2.0000      -0.585038       -15.9197
  59   2.0000      -0.570837       -15.5333
  60   2.0000      -0.546282       -14.8651
  61   2.0000      -0.536648       -14.6029
  62   2.0000      -0.529556       -14.4100
  63   2.0000      -0.514926       -14.0118
  64   2.0000      -0.510427       -13.8894
  65   2.0000      -0.499883       -13.6025
  66   2.0000      -0.471378       -12.8269
  67   2.0000      -0.468139       -12.7387
  68   2.0000      -0.458577       -12.4785
  69   2.0000      -0.454116       -12.3571
  70   2.0000      -0.445806       -12.1310
  71   2.0000      -0.444807       -12.1038
  72   2.0000      -0.434528       -11.8241
  73   2.0000      -0.431495       -11.7416
  74   2.0000      -0.429206       -11.6793
  75   2.0000      -0.423283       -11.5181
  76   2.0000      -0.408893       -11.1265
  77   2.0000      -0.408512       -11.1162
  78   2.0000      -0.390743       -10.6327
  79   2.0000      -0.386365       -10.5135
  80   2.0000      -0.377070       -10.2606
  81   2.0000      -0.376278       -10.2390
  82   2.0000      -0.373804       -10.1717
  83   2.0000      -0.369909       -10.0657
  84   2.0000      -0.366347        -9.9688
  85   2.0000      -0.351722        -9.5708
  86   2.0000      -0.341911        -9.3039
  87   2.0000      -0.332829        -9.0567
  88   2.0000      -0.332054        -9.0357
  89   2.0000      -0.329663        -8.9706
  90   2.0000      -0.328503        -8.9390
  91   2.0000      -0.315834        -8.5943
  92   2.0000      -0.306111        -8.3297
  93   2.0000      -0.299652        -8.1540
  94   2.0000      -0.293493        -7.9864
  95   2.0000      -0.269224        -7.3260
  96   2.0000      -0.263817        -7.1788
  97   2.0000      -0.261206        -7.1078
  98   2.0000      -0.255551        -6.9539
  99   2.0000      -0.242547        -6.6001
 100   2.0000      -0.242087        -6.5875
 101   2.0000      -0.234008        -6.3677
 102   2.0000      -0.230352        -6.2682
 103   2.0000      -0.201158        -5.4738
 104   2.0000      -0.177027        -4.8172
 105   2.0000      -0.176244        -4.7958
 106   0.0000      -0.138926        -3.7804
 107   0.0000      -0.129820        -3.5326
 108   0.0000      -0.119218        -3.2441
 109   0.0000      -0.114018        -3.1026
 110   0.0000      -0.086498        -2.3537

Total SCF time: 0 days 0 hours 6 min 2 sec

FINAL SINGLE POINT ENERGY     -1945.291668443511

DIPOLE MOMENT
-------------
                                X             Y             Z
Electronic contribution:    -73.05913     -21.71114      -0.00000
Nuclear contribution   :     69.25545      18.19527       0.00000
                        -----------------------------------------
Total Dipole Moment    :     -3.80368      -3.51587      -0.00000
                        -----------------------------------------
Magnitude (a.u.)       :      5.17970
Magnitude (Debye)      :     13.16575

Rotational constants in cm-1:     0.014408     0.001691     0.001514
Rotational constants in MHz :   431.944445    50.709855    45.382047

                             ****ORCA TERMINATED NORMALLY****
TOTAL RUN TIME: 0 days 0 hours 6 minutes 6 seconds 713 msec
