                         Program Version 5.0.3 -  RELEASE  -
|  1> !MiniPrint
|  2> !B3LYP 6-311++G(d,p) extremescf CPCM(water)
|  3> %pal nprocs 30
|  4> end
|  5>
|  6> # Coordinate type     Charge  Multiplicity
|  7> * xyzfile 0 1 GLASS_120827.xyz
|  8>
|  9>                          ****END OF INPUT****

CARTESIAN COORDINATES (ANGSTROEM)
---------------------------------
  C      4.072100   -3.306300    0.000000
  C      4.585100   -1.896800    0.000000
  N      3.403100   -0.973300    0.000000
  C      2.159500   -1.812100    0.000000
  N      2.573000   -3.254000    0.000000
  C      0.750000   -1.299000    0.000000
  C      1.500000    0.000000    0.000000
  O      0.750000    1.299000    0.000000
  C     -0.750000    1.299000    0.000000
  C     -1.500000    2.598100    0.000000
  C     -3.000000    2.598100    0.000000
  C     -3.750000    1.299000    0.000000
  C     -3.000000    0.000000    0.000000
  C     -1.500000    0.000000    0.000000
  O     -0.750000   -1.299000    0.000000
  H      5.527500   -3.669200    0.000000
  H      3.863300   -4.791700    0.000000
  H      5.380000   -0.624700    0.000000
  H      5.933300   -2.554300    0.000000
  H      1.649500   -4.436000    0.000000
  H      0.489500   -2.776200    0.000000
  H      2.649100    0.964200    0.000000
  H      2.592100   -0.532600    0.000000
  H     -0.750000    3.897100    0.000000
  H     -3.750000    3.897100    0.000000
  H     -5.250000    1.299000    0.000000
  H     -3.750000   -1.299000    0.000000

ORBITAL ENERGIES
----------------

  NO   OCC          E(Eh)            E(eV)
   0   2.0000     -19.177832      -521.8553
   1   2.0000     -19.168295      -521.5958
   2   2.0000     -14.384471      -391.4213
   3   2.0000     -14.337129      -390.1331
   4   2.0000     -10.300486      -280.2905
   5   2.0000     -10.291845      -280.0553
   6   2.0000     -10.291390      -280.0430
   7   2.0000     -10.288870      -279.9744
   8   2.0000     -10.281174      -279.7650
   9   2.0000     -10.277162      -279.6558
  10   2.0000     -10.276266      -279.6314
  11   2.0000     -10.249784      -278.9108
  12   2.0000     -10.247513      -278.8490
  13   2.0000     -10.246914      -278.8327
  14   2.0000     -10.246430      -278.8195
  15   2.0000      -1.049512       -28.5587
  16   2.0000      -1.023220       -27.8432
  17   2.0000      -1.017867       -27.6976
  18   2.0000      -0.895011       -24.3545
  19   2.0000      -0.831419       -22.6241
  20   2.0000      -0.812434       -22.1075
  21   2.0000      -0.736637       -20.0449
  22   2.0000      -0.729705       -19.8563
  23   2.0000      -0.713337       -19.4109
  24   2.0000      -0.675885       -18.3918
  25   2.0000      -0.621122       -16.9016
  26   2.0000      -0.593357       -16.1461
  27   2.0000      -0.587494       -15.9865
  28   2.0000      -0.544931       -14.8283
  29   2.0000      -0.536083       -14.5876
  30   2.0000      -0.520847       -14.1730
  31   2.0000      -0.480544       -13.0763
  32   2.0000      -0.453016       -12.3272
  33   2.0000      -0.444907       -12.1065
  34   2.0000      -0.435948       -11.8628
  35   2.0000      -0.417113       -11.3502
  36   2.0000      -0.412160       -11.2155
  37   2.0000      -0.408096       -11.1049
  38   2.0000      -0.404437       -11.0053
  39   2.0000      -0.387688       -10.5495
  40   2.0000      -0.378991       -10.3129
  41   2.0000      -0.376393       -10.2422
  42   2.0000      -0.357485        -9.7277
  43   2.0000      -0.350426        -9.5356
  44   2.0000      -0.340995        -9.2789
  45   2.0000      -0.328783        -8.9466
  46   2.0000      -0.312004        -8.4901
  47   2.0000      -0.310218        -8.4415
  48   2.0000      -0.297313        -8.0903
  49   2.0000      -0.257244        -7.0000
  50   2.0000      -0.251531        -6.8445
  51   2.0000      -0.246642        -6.7115
  52   2.0000      -0.200815        -5.4645
  53   2.0000      -0.194759        -5.2997
  54   0.0000      -0.113132        -3.0785
  55   0.0000      -0.111418        -3.0318
  56   0.0000      -0.087429        -2.3791
  57   0.0000      -0.074963        -2.0399
  58   0.0000      -0.046773        -1.2728

Total SCF time: 0 days 0 hours 1 min 11 sec

FINAL SINGLE POINT ENERGY      -684.779467983324

DIPOLE MOMENT
-------------
                                X             Y             Z
Electronic contribution:     -6.27722       5.70971       0.00000
Nuclear contribution   :      8.55917      -5.77868       0.00000
                        -----------------------------------------
Total Dipole Moment    :      2.28195      -0.06897       0.00000
                        -----------------------------------------
Magnitude (a.u.)       :      2.28299
Magnitude (Debye)      :      5.80290

Rotational constants in cm-1:     0.061647     0.009068     0.007905
Rotational constants in MHz :  1848.119568   271.859340   236.996964

                             ****ORCA TERMINATED NORMALLY****
TOTAL RUN TIME: 0 days 0 hours 1 minutes 13 seconds 938 msec
