                         Program Version 5.0.3 -  RELEASE  -
|  1> !MiniPrint
|  2> !B3LYP 6-311++G(d,p) extremescf CPCM(water)
|  3> %pal nprocs 30
|  4> end
|  5>
|  6> # Coordinate type     Charge  Multiplicity
|  7> * xyzfile 0 1 GLASS_137937.xyz
|  8>
|  9>                          ****END OF INPUT****

CARTESIAN COORDINATES (ANGSTROEM)
---------------------------------
  C      2.806800    3.857900    0.000000
  C      2.244800    5.248700    0.000000
  C      1.321300    4.066700    0.000000
  C      0.857800    2.640100    0.000000
  N      0.394300    1.213500    0.000000
  C      1.276000    0.000000    0.000000
  C      0.394300   -1.213500    0.000000
  C     -1.032300   -0.750000    0.000000
  C     -1.032300    0.750000    0.000000
  C     -2.331300    1.500000    0.000000
  C     -3.630400    0.750000    0.000000
  C     -3.630400   -0.750000    0.000000
  C     -2.331300   -1.500000    0.000000
  C     -4.929400   -1.500000    0.000000
  C     -6.228400   -0.750000    0.000000
  C     -6.228400    0.750000    0.000000
  C     -4.929400    1.500000    0.000000
  O     -4.929400   -3.000000    0.000000
  H      4.274000    4.169800    0.000000
  H      3.018000    2.524600    0.000000
  H      1.241100    6.363400    0.000000
  H      3.516900    6.043600    0.000000
  H     -0.003100    4.770900    0.000000
  H     -0.426100    3.057300    0.000000
  H      2.081300    2.069500    0.000000
  H      2.390700    1.003700    0.000000
  H      2.390700   -1.003700    0.000000
  H      1.693300   -1.963500    0.000000
  H     -0.044200   -2.648000    0.000000
  H     -0.905300   -1.958300    0.000000
  H     -0.728600    2.065400    0.000000
  H     -3.295500    2.649100    0.000000
  H     -1.514400    2.758000    0.000000
  H     -1.669600   -2.519000    0.000000
  H     -3.295500   -2.649100    0.000000
  H     -7.527500   -1.500000    0.000000
  H     -7.527500    1.500000    0.000000
  H     -4.929400    3.000000    0.000000
  H     -6.228400   -3.750000    0.000000

ORBITAL ENERGIES
----------------

  NO   OCC          E(Eh)            E(eV)
   0   2.0000     -19.181605      -521.9580
   1   2.0000     -14.402339      -391.9076
   2   2.0000     -10.285718      -279.8886
   3   2.0000     -10.284942      -279.8675
   4   2.0000     -10.281157      -279.7645
   5   2.0000     -10.277748      -279.6717
   6   2.0000     -10.266193      -279.3573
   7   2.0000     -10.261540      -279.2307
   8   2.0000     -10.259919      -279.1866
   9   2.0000     -10.255353      -279.0623
  10   2.0000     -10.252085      -278.9734
  11   2.0000     -10.245792      -278.8022
  12   2.0000     -10.245447      -278.7928
  13   2.0000     -10.241068      -278.6736
  14   2.0000     -10.239189      -278.6225
  15   2.0000     -10.235006      -278.5087
  16   2.0000     -10.231218      -278.4056
  17   2.0000     -10.202208      -277.6162
  18   2.0000      -0.994375       -27.0583
  19   2.0000      -0.989695       -26.9310
  20   2.0000      -0.911922       -24.8147
  21   2.0000      -0.895831       -24.3768
  22   2.0000      -0.847923       -23.0732
  23   2.0000      -0.804216       -21.8838
  24   2.0000      -0.776517       -21.1301
  25   2.0000      -0.751525       -20.4500
  26   2.0000      -0.739727       -20.1290
  27   2.0000      -0.696700       -18.9582
  28   2.0000      -0.663085       -18.0435
  29   2.0000      -0.652199       -17.7472
  30   2.0000      -0.638953       -17.3868
  31   2.0000      -0.604446       -16.4478
  32   2.0000      -0.587510       -15.9870
  33   2.0000      -0.562689       -15.3116
  34   2.0000      -0.545407       -14.8413
  35   2.0000      -0.538412       -14.6509
  36   2.0000      -0.508891       -13.8476
  37   2.0000      -0.492011       -13.3883
  38   2.0000      -0.480790       -13.0829
  39   2.0000      -0.472796       -12.8654
  40   2.0000      -0.460037       -12.5182
  41   2.0000      -0.445920       -12.1341
  42   2.0000      -0.435331       -11.8460
  43   2.0000      -0.426041       -11.5932
  44   2.0000      -0.414464       -11.2781
  45   2.0000      -0.407152       -11.0792
  46   2.0000      -0.400243       -10.8912
  47   2.0000      -0.397733       -10.8229
  48   2.0000      -0.384180       -10.4541
  49   2.0000      -0.377460       -10.2712
  50   2.0000      -0.372247       -10.1294
  51   2.0000      -0.353108        -9.6086
  52   2.0000      -0.349332        -9.5058
  53   2.0000      -0.339709        -9.2439
  54   2.0000      -0.334522        -9.1028
  55   2.0000      -0.330818        -9.0020
  56   2.0000      -0.300310        -8.1719
  57   2.0000      -0.291239        -7.9250
  58   2.0000      -0.276024        -7.5110
  59   2.0000      -0.250010        -6.8031
  60   2.0000      -0.240715        -6.5502
  61   2.0000      -0.224147        -6.0993
  62   2.0000      -0.223188        -6.0733
  63   2.0000      -0.188092        -5.1182
  64   2.0000      -0.175004        -4.7621
  65   2.0000      -0.166336        -4.5262
  66   0.0000      -0.135578        -3.6893
  67   0.0000      -0.113858        -3.0982
  68   0.0000      -0.098653        -2.6845
  69   0.0000      -0.075774        -2.0619
  70   0.0000      -0.070942        -1.9304

Total SCF time: 0 days 0 hours 3 min 9 sec

FINAL SINGLE POINT ENERGY      -749.906480860512

DIPOLE MOMENT
-------------
                                X             Y             Z
Electronic contribution:    -19.16498      -6.36261      -0.00000
Nuclear contribution   :     17.56823       8.80451       0.00000
                        -----------------------------------------
Total Dipole Moment    :     -1.59675       2.44189      -0.00000
                        -----------------------------------------
Magnitude (a.u.)       :      2.91761
Magnitude (Debye)      :      7.41598

Rotational constants in cm-1:     0.027321     0.006171     0.005034
Rotational constants in MHz :   819.066276   184.995882   150.910864

                             ****ORCA TERMINATED NORMALLY****
TOTAL RUN TIME: 0 days 0 hours 3 minutes 11 seconds 707 msec
