                         Program Version 5.0.3 -  RELEASE  -
|  1> !MiniPrint
|  2> !B3LYP 6-311++G(d,p) extremescf CPCM(water)
|  3> %pal nprocs 30
|  4> end
|  5>
|  6> # Coordinate type     Charge  Multiplicity
|  7> * xyzfile 0 1 GLASS_100738.xyz
|  8>
|  9>                          ****END OF INPUT****

CARTESIAN COORDINATES (ANGSTROEM)
---------------------------------
  C      5.026000    1.299000    0.000000
  C      4.276000    0.000000    0.000000
  C      2.776000    0.000000    0.000000
  N      1.276000    0.000000    0.000000
  C      0.394300    1.213500    0.000000
  C     -1.032300    0.750000    0.000000
  C     -1.032300   -0.750000    0.000000
  C      0.394300   -1.213500    0.000000
  C      0.706200   -2.680700    0.000000
  C     -0.408600   -3.684400    0.000000
  C     -1.835100   -3.220900    0.000000
  C     -2.147000   -1.753700    0.000000
  C     -2.949900   -4.224600    0.000000
  C     -2.638000   -5.691800    0.000000
  C     -1.211400   -6.155400    0.000000
  C     -0.096700   -5.151700    0.000000
  O     -4.376400   -3.761100    0.000000
  H      6.526000    1.299000    0.000000
  H      4.276000    2.598100    0.000000
  H      5.026000   -1.299000    0.000000
  H      2.776000   -1.350000    0.000000
  H      2.776000    1.500000    0.000000
  H     -0.215800    2.583800    0.000000
  H      1.693300    1.963500    0.000000
  H     -2.532100    0.776200    0.000000
  H     -1.344200    2.217200    0.000000
  H     -2.142200   -0.255800    0.000000
  H      1.739200   -1.331100    0.000000
  H      1.501000   -3.952800    0.000000
  H      2.155100   -2.292600    0.000000
  H     -2.911700   -0.809500    0.000000
  H     -3.537800   -2.315600    0.000000
  H     -3.752700   -6.695500    0.000000
  H     -0.899500   -7.622600    0.000000
  H      1.329900   -5.615200    0.000000
  H     -5.491200   -4.764800    0.000000

ORBITAL ENERGIES
----------------

  NO   OCC          E(Eh)            E(eV)
   0   2.0000     -19.188773      -522.1530
   1   2.0000     -14.429043      -392.6342
   2   2.0000     -10.291913      -280.0572
   3   2.0000     -10.288328      -279.9596
   4   2.0000     -10.271759      -279.5088
   5   2.0000     -10.269744      -279.4539
   6   2.0000     -10.267076      -279.3814
   7   2.0000     -10.259950      -279.1874
   8   2.0000     -10.256970      -279.1063
   9   2.0000     -10.252708      -278.9904
  10   2.0000     -10.251044      -278.9451
  11   2.0000     -10.249697      -278.9084
  12   2.0000     -10.249152      -278.8936
  13   2.0000     -10.246290      -278.8157
  14   2.0000     -10.238349      -278.5996
  15   2.0000     -10.234931      -278.5066
  16   2.0000     -10.213863      -277.9334
  17   2.0000      -1.010562       -27.4988
  18   2.0000      -0.996501       -27.1162
  19   2.0000      -0.904480       -24.6122
  20   2.0000      -0.857511       -23.3341
  21   2.0000      -0.814588       -22.1661
  22   2.0000      -0.791792       -21.5458
  23   2.0000      -0.762126       -20.7385
  24   2.0000      -0.753374       -20.5003
  25   2.0000      -0.726943       -19.7811
  26   2.0000      -0.688049       -18.7228
  27   2.0000      -0.658343       -17.9144
  28   2.0000      -0.647701       -17.6248
  29   2.0000      -0.624149       -16.9839
  30   2.0000      -0.586642       -15.9633
  31   2.0000      -0.564089       -15.3496
  32   2.0000      -0.548933       -14.9372
  33   2.0000      -0.539328       -14.6759
  34   2.0000      -0.518127       -14.0990
  35   2.0000      -0.485497       -13.2110
  36   2.0000      -0.477874       -13.0036
  37   2.0000      -0.456515       -12.4224
  38   2.0000      -0.448669       -12.2089
  39   2.0000      -0.445597       -12.1253
  40   2.0000      -0.439576       -11.9615
  41   2.0000      -0.415621       -11.3096
  42   2.0000      -0.406913       -11.0727
  43   2.0000      -0.405769       -11.0415
  44   2.0000      -0.396148       -10.7797
  45   2.0000      -0.384459       -10.4617
  46   2.0000      -0.380619       -10.3572
  47   2.0000      -0.363988        -9.9046
  48   2.0000      -0.355008        -9.6603
  49   2.0000      -0.344535        -9.3753
  50   2.0000      -0.344117        -9.3639
  51   2.0000      -0.341651        -9.2968
  52   2.0000      -0.317134        -8.6296
  53   2.0000      -0.307735        -8.3739
  54   2.0000      -0.298975        -8.1355
  55   2.0000      -0.282393        -7.6843
  56   2.0000      -0.270649        -7.3647
  57   2.0000      -0.256720        -6.9857
  58   2.0000      -0.239088        -6.5059
  59   2.0000      -0.223876        -6.0920
  60   2.0000      -0.179709        -4.8901
  61   2.0000      -0.156728        -4.2648
  62   0.0000      -0.125105        -3.4043
  63   0.0000      -0.105919        -2.8822
  64   0.0000      -0.096970        -2.6387
  65   0.0000      -0.059917        -1.6304
  66   0.0000      -0.058395        -1.5890

Total SCF time: 0 days 0 hours 2 min 20 sec

FINAL SINGLE POINT ENERGY      -710.972652447357

DIPOLE MOMENT
-------------
                                X             Y             Z
Electronic contribution:    -12.68476     -17.28878       0.00000
Nuclear contribution   :      9.78661      12.04048       0.00000
                        -----------------------------------------
Total Dipole Moment    :     -2.89815      -5.24830       0.00000
                        -----------------------------------------
Magnitude (a.u.)       :      5.99533
Magnitude (Debye)      :     15.23891

Rotational constants in cm-1:     0.029686     0.007399     0.005923
Rotational constants in MHz :   889.950986   221.809424   177.555806

                             ****ORCA TERMINATED NORMALLY****
TOTAL RUN TIME: 0 days 0 hours 2 minutes 27 seconds 50 msec
