                         Program Version 5.0.3 -  RELEASE  -
|  1> !MiniPrint
|  2> !B3LYP 6-311++G(d,p) extremescf CPCM(water)
|  3> %pal nprocs 30
|  4> end
|  5>
|  6> # Coordinate type     Charge  Multiplicity
|  7> * xyzfile 0 1 GLASS_105239.xyz
|  8>
|  9>                          ****END OF INPUT****

CARTESIAN COORDINATES (ANGSTROEM)
---------------------------------
  C      3.593200   -5.388900    0.000000
  C      4.963500   -5.999000    0.000000
  N      5.967200   -4.884300    0.000000
  C      5.217200   -3.585200    0.000000
  C      3.750000   -3.897100    0.000000
  N      2.250000   -3.897100    0.000000
  S      1.500000   -2.598100    0.000000
  O      0.201000   -3.348100    0.000000
  O      2.799000   -1.848100    0.000000
  C      0.750000   -1.299000    0.000000
  C      1.500000   -0.000000    0.000000
  C      0.750000    1.299000    0.000000
  C     -0.750000    1.299000    0.000000
  C     -1.500000    0.000000    0.000000
  C     -0.750000   -1.299000    0.000000
  F     -1.500000    2.598100    0.000000
  C      7.459000   -5.041100    0.000000
  C      8.950800   -5.197900    0.000000
  O     10.442600   -5.354700    0.000000
  C     11.052700   -6.725000    0.000000
  C     10.171000   -7.938500    0.000000
  C     10.781100   -9.308800    0.000000
  C     12.272900   -9.465600    0.000000
  C     13.154600   -8.252100    0.000000
  C     12.544500   -6.881800    0.000000
  C     13.426100   -5.668200    0.000000
  C     14.917900   -5.825000    0.000000
  C     15.799600   -4.611500    0.000000
  C     15.189500   -3.241200    0.000000
  C     13.697700   -3.084400    0.000000
  C     12.816000   -4.297900    0.000000
  H      3.129700   -6.815500    0.000000
  H      2.382800   -5.283000    0.000000
  H      6.177100   -6.880700    0.000000
  H      4.213500   -7.298000    0.000000
  H      4.753700   -2.158700    0.000000
  H      6.587500   -2.975100    0.000000
  H      3.593200   -2.405300    0.000000
  H      1.518800   -4.867400    0.000000
  H      3.000000   -0.000000    0.000000
  H      1.500000    2.598100    0.000000
  H     -3.000000    0.000000    0.000000
  H     -1.500000   -2.598100    0.000000
  H      7.615800   -3.549300    0.000000
  H      7.302200   -6.532900    0.000000
  H      9.107600   -3.706100    0.000000
  H      8.794000   -6.689700    0.000000
  H      8.679200   -7.781700    0.000000
  H      9.899400  -10.522400    0.000000
  H     12.883000  -10.835900    0.000000
  H     14.646300   -8.408900    0.000000
  H     15.528000   -7.195400    0.000000
  H     17.291400   -4.768300    0.000000
  H     16.071200   -2.027700    0.000000
  H     13.087600   -1.714100    0.000000
  H     11.324200   -4.141100    0.000000

ORBITAL ENERGIES
----------------

  NO   OCC          E(Eh)            E(eV)
   0   2.0000     -89.085660     -2424.1441
   1   2.0000     -24.710847      -672.4163
   2   2.0000     -19.197550      -522.3919
   3   2.0000     -19.174028      -521.7518
   4   2.0000     -19.107470      -519.9407
   5   2.0000     -14.437160      -392.8551
   6   2.0000     -14.408650      -392.0793
   7   2.0000     -10.337515      -281.2981
   8   2.0000     -10.297434      -280.2074
   9   2.0000     -10.279414      -279.7171
  10   2.0000     -10.279034      -279.7067
  11   2.0000     -10.271350      -279.4976
  12   2.0000     -10.270448      -279.4731
  13   2.0000     -10.267199      -279.3847
  14   2.0000     -10.266421      -279.3635
  15   2.0000     -10.260902      -279.2133
  16   2.0000     -10.258745      -279.1546
  17   2.0000     -10.247733      -278.8550
  18   2.0000     -10.245809      -278.8026
  19   2.0000     -10.243841      -278.7491
  20   2.0000     -10.241832      -278.6944
  21   2.0000     -10.241541      -278.6865
  22   2.0000     -10.239918      -278.6423
  23   2.0000     -10.238609      -278.6067
  24   2.0000     -10.236338      -278.5449
  25   2.0000     -10.234125      -278.4847
  26   2.0000     -10.234096      -278.4839
  27   2.0000     -10.232778      -278.4481
  28   2.0000     -10.225208      -278.2420
  29   2.0000     -10.211884      -277.8795
  30   2.0000     -10.204892      -277.6892
  31   2.0000      -8.157250      -221.9701
  32   2.0000      -6.120952      -166.5596
  33   2.0000      -6.119391      -166.5171
  34   2.0000      -6.115559      -166.4128
  35   2.0000      -1.231567       -33.5126
  36   2.0000      -1.205156       -32.7940
  37   2.0000      -1.097840       -29.8737
  38   2.0000      -1.035625       -28.1808
  39   2.0000      -1.008078       -27.4312
  40   2.0000      -0.957178       -26.0461
  41   2.0000      -0.879954       -23.9448
  42   2.0000      -0.843956       -22.9652
  43   2.0000      -0.838678       -22.8216
  44   2.0000      -0.817786       -22.2531
  45   2.0000      -0.807754       -21.9801
  46   2.0000      -0.759957       -20.6795
  47   2.0000      -0.755915       -20.5695
  48   2.0000      -0.751351       -20.4453
  49   2.0000      -0.743241       -20.2246
  50   2.0000      -0.726606       -19.7720
  51   2.0000      -0.712229       -19.3807
  52   2.0000      -0.707015       -19.2389
  53   2.0000      -0.697775       -18.9874
  54   2.0000      -0.692323       -18.8391
  55   2.0000      -0.661378       -17.9970
  56   2.0000      -0.639291       -17.3960
  57   2.0000      -0.611859       -16.6495
  58   2.0000      -0.611116       -16.6293
  59   2.0000      -0.604564       -16.4510
  60   2.0000      -0.576870       -15.6974
  61   2.0000      -0.570401       -15.5214
  62   2.0000      -0.567906       -15.4535
  63   2.0000      -0.562587       -15.3088
  64   2.0000      -0.550681       -14.9848
  65   2.0000      -0.549066       -14.9408
  66   2.0000      -0.528921       -14.3927
  67   2.0000      -0.518030       -14.0963
  68   2.0000      -0.512980       -13.9589
  69   2.0000      -0.507756       -13.8168
  70   2.0000      -0.497688       -13.5428
  71   2.0000      -0.476494       -12.9661
  72   2.0000      -0.467367       -12.7177
  73   2.0000      -0.462006       -12.5718
  74   2.0000      -0.455011       -12.3815
  75   2.0000      -0.448092       -12.1932
  76   2.0000      -0.441950       -12.0261
  77   2.0000      -0.431652       -11.7459
  78   2.0000      -0.425753       -11.5853
  79   2.0000      -0.420862       -11.4522
  80   2.0000      -0.415588       -11.3087
  81   2.0000      -0.415372       -11.3028
  82   2.0000      -0.413840       -11.2612
  83   2.0000      -0.413010       -11.2386
  84   2.0000      -0.408530       -11.1167
  85   2.0000      -0.404639       -11.0108
  86   2.0000      -0.397316       -10.8115
  87   2.0000      -0.394906       -10.7459
  88   2.0000      -0.390436       -10.6243
  89   2.0000      -0.383009       -10.4222
  90   2.0000      -0.369480       -10.0541
  91   2.0000      -0.366780        -9.9806
  92   2.0000      -0.363113        -9.8808
  93   2.0000      -0.356320        -9.6960
  94   2.0000      -0.347458        -9.4548
  95   2.0000      -0.346615        -9.4319
  96   2.0000      -0.342313        -9.3148
  97   2.0000      -0.338660        -9.2154
  98   2.0000      -0.330657        -8.9976
  99   2.0000      -0.329498        -8.9661
 100   2.0000      -0.304704        -8.2914
 101   2.0000      -0.293731        -7.9928
 102   2.0000      -0.290536        -7.9059
 103   2.0000      -0.288157        -7.8412
 104   2.0000      -0.285558        -7.7704
 105   2.0000      -0.279095        -7.5946
 106   2.0000      -0.277928        -7.5628
 107   2.0000      -0.272537        -7.4161
 108   2.0000      -0.259954        -7.0737
 109   2.0000      -0.254140        -6.9155
 110   2.0000      -0.249345        -6.7850
 111   2.0000      -0.246944        -6.7197
 112   2.0000      -0.229492        -6.2448
 113   2.0000      -0.216569        -5.8931
 114   2.0000      -0.213983        -5.8228
 115   2.0000      -0.174523        -4.7490
 116   0.0000      -0.155443        -4.2298
 117   0.0000      -0.137310        -3.7364
 118   0.0000      -0.081191        -2.2093
 119   0.0000      -0.071041        -1.9331
 120   0.0000      -0.064301        -1.7497

Total SCF time: 0 days 0 hours 7 min 30 sec

FINAL SINGLE POINT ENERGY     -1759.869308730863

DIPOLE MOMENT
-------------
                                X             Y             Z
Electronic contribution:    -40.00246      28.40224      -0.00000
Nuclear contribution   :     30.64326     -24.99017       0.00000
                        -----------------------------------------
Total Dipole Moment    :     -9.35920       3.41208      -0.00000
                        -----------------------------------------
Magnitude (a.u.)       :      9.96177
Magnitude (Debye)      :     25.32081

Rotational constants in cm-1:     0.009885     0.001031     0.000934
Rotational constants in MHz :   296.344610    30.907162    27.988148

                             ****ORCA TERMINATED NORMALLY****
TOTAL RUN TIME: 0 days 0 hours 7 minutes 33 seconds 949 msec
