                         Program Version 5.0.3 -  RELEASE  -
|  1> !MiniPrint
|  2> !B3LYP 6-311++G(d,p) extremescf CPCM(water)
|  3> %pal nprocs 30
|  4> end
|  5>
|  6> # Coordinate type     Charge  Multiplicity
|  7> * xyzfile 0 1 GLASS_155995.xyz
|  8>
|  9>                          ****END OF INPUT****

CARTESIAN COORDINATES (ANGSTROEM)
---------------------------------
  C     -3.358500  -12.839800    0.000000
  C     -2.895000  -11.413200    0.000000
  C     -2.431400   -9.986600    0.000000
  C     -1.967900   -8.560000    0.000000
  C     -1.504400   -7.133400    0.000000
  C     -1.040900   -5.706800    0.000000
  O     -0.577300   -4.280300    0.000000
  C      0.889900   -3.968400    0.000000
  N      2.004600   -4.972100    0.000000
  S      3.303700   -4.222100    0.000000
  N      2.991800   -2.754900    0.000000
  C      1.500000   -2.598100    0.000000
  C      0.750000   -1.299000    0.000000
  C      1.500000    0.000000    0.000000
  C      0.750000    1.299000    0.000000
  C     -0.750000    1.299000    0.000000
  N     -1.500000    0.000000    0.000000
  C     -0.750000   -1.299000    0.000000
  C     -3.000000    0.000000    0.000000
  H     -3.822000  -14.266400    0.000000
  H     -1.931900  -13.303300    0.000000
  H     -4.785100  -12.376200    0.000000
  H     -1.468400  -11.876700    0.000000
  H     -4.321500  -10.949700    0.000000
  H     -3.858000   -9.523100    0.000000
  H     -1.004800  -10.450100    0.000000
  H     -0.541300   -9.023500    0.000000
  H     -3.394500   -8.096500    0.000000
  H     -2.931000   -6.669900    0.000000
  H     -0.077800   -7.597000    0.000000
  H      0.385700   -6.170400    0.000000
  H     -2.467400   -5.243300    0.000000
  H      3.000000    0.000000    0.000000
  H      0.489500    2.776200    0.000000
  H      2.159500    1.812100    0.000000
  H     -2.086500    1.980100    0.000000
  H     -0.489500    2.776200    0.000000
  H     -0.489500   -2.776200    0.000000
  H     -2.086500   -1.980100    0.000000
  H     -4.500000    0.000000    0.000000
  H     -3.182800    1.488800    0.000000
  H     -3.182800   -1.488800    0.000000

ORBITAL ENERGIES
----------------

  NO   OCC          E(Eh)            E(eV)
   0   2.0000     -88.959139     -2420.7012
   1   2.0000     -19.226178      -523.1709
   2   2.0000     -14.434900      -392.7936
   3   2.0000     -14.370989      -391.0545
   4   2.0000     -14.367679      -390.9644
   5   2.0000     -10.326571      -281.0003
   6   2.0000     -10.319591      -280.8104
   7   2.0000     -10.312761      -280.6245
   8   2.0000     -10.311192      -280.5818
   9   2.0000     -10.307601      -280.4841
  10   2.0000     -10.304613      -280.4028
  11   2.0000     -10.283917      -279.8396
  12   2.0000     -10.280782      -279.7543
  13   2.0000     -10.259045      -279.1628
  14   2.0000     -10.258436      -279.1462
  15   2.0000     -10.250286      -278.9245
  16   2.0000     -10.248004      -278.8624
  17   2.0000     -10.247711      -278.8544
  18   2.0000     -10.228209      -278.3237
  19   2.0000      -8.044643      -218.9059
  20   2.0000      -6.008660      -163.5040
  21   2.0000      -6.002400      -163.3336
  22   2.0000      -6.000928      -163.2936
  23   2.0000      -1.083344       -29.4793
  24   2.0000      -1.055425       -28.7196
  25   2.0000      -0.950664       -25.8689
  26   2.0000      -0.904164       -24.6036
  27   2.0000      -0.851230       -23.1631
  28   2.0000      -0.834394       -22.7050
  29   2.0000      -0.806351       -21.9419
  30   2.0000      -0.783021       -21.3071
  31   2.0000      -0.755481       -20.5577
  32   2.0000      -0.747342       -20.3362
  33   2.0000      -0.698205       -18.9991
  34   2.0000      -0.670433       -18.2434
  35   2.0000      -0.659715       -17.9518
  36   2.0000      -0.646312       -17.5870
  37   2.0000      -0.619330       -16.8528
  38   2.0000      -0.597754       -16.2657
  39   2.0000      -0.586678       -15.9643
  40   2.0000      -0.567962       -15.4550
  41   2.0000      -0.553829       -15.0705
  42   2.0000      -0.534096       -14.5335
  43   2.0000      -0.513454       -13.9718
  44   2.0000      -0.499239       -13.5850
  45   2.0000      -0.484823       -13.1927
  46   2.0000      -0.481425       -13.1002
  47   2.0000      -0.480967       -13.0878
  48   2.0000      -0.464602       -12.6425
  49   2.0000      -0.451735       -12.2923
  50   2.0000      -0.443171       -12.0593
  51   2.0000      -0.430243       -11.7075
  52   2.0000      -0.422314       -11.4918
  53   2.0000      -0.412178       -11.2159
  54   2.0000      -0.410517       -11.1707
  55   2.0000      -0.379146       -10.3171
  56   2.0000      -0.377577       -10.2744
  57   2.0000      -0.375686       -10.2229
  58   2.0000      -0.362121        -9.8538
  59   2.0000      -0.350371        -9.5341
  60   2.0000      -0.348792        -9.4911
  61   2.0000      -0.328741        -8.9455
  62   2.0000      -0.327084        -8.9004
  63   2.0000      -0.318804        -8.6751
  64   2.0000      -0.316820        -8.6211
  65   2.0000      -0.314298        -8.5525
  66   2.0000      -0.293644        -7.9905
  67   2.0000      -0.271779        -7.3955
  68   2.0000      -0.259672        -7.0660
  69   2.0000      -0.258538        -7.0352
  70   2.0000      -0.255734        -6.9589
  71   2.0000      -0.244975        -6.6661
  72   2.0000      -0.229288        -6.2392
  73   2.0000      -0.208028        -5.6607
  74   2.0000      -0.197301        -5.3688
  75   2.0000      -0.177431        -4.8282
  76   0.0000      -0.151349        -4.1184
  77   0.0000      -0.143041        -3.8924
  78   0.0000      -0.142037        -3.8650
  79   0.0000      -0.136614        -3.7175
  80   0.0000      -0.088732        -2.4145

Total SCF time: 0 days 0 hours 3 min 14 sec

FINAL SINGLE POINT ENERGY     -1182.288220605230

DIPOLE MOMENT
-------------
                                X             Y             Z
Electronic contribution:     34.22426      14.10824      -0.00000
Nuclear contribution   :    -34.85793     -22.88676       0.00000
                        -----------------------------------------
Total Dipole Moment    :     -0.63367      -8.77851      -0.00000
                        -----------------------------------------
Magnitude (a.u.)       :      8.80135
Magnitude (Debye)      :     22.37127

Rotational constants in cm-1:     0.016050     0.003393     0.002801
Rotational constants in MHz :   481.165233   101.719724    83.968533

                             ****ORCA TERMINATED NORMALLY****
TOTAL RUN TIME: 0 days 0 hours 3 minutes 17 seconds 316 msec
